 TITLE = "Example: 2D Finite-Element Data" 
 VARIABLES = "X", "Y" , "Z"
 ZONE N=          35 E=          24 F=FEPOINT, ET=QUADRILATERAL
  0.0000000E+00  0.0000000E+00 -4.3160208E+08
  0.9933333      0.0000000E+00 -4.3160208E+08
   1.986667      0.0000000E+00 -4.3160208E+08
   2.980000      0.0000000E+00 -4.3160208E+08
   3.973333      0.0000000E+00 -4.3160208E+08
   4.966667      0.0000000E+00 -4.3160208E+08
   5.960000      0.0000000E+00 -4.3160208E+08
   5.960000      0.8000000     -4.3160208E+08
   5.960000       1.600000     -4.3160208E+08
   5.960000       2.400000     -4.3160208E+08
   5.960000       3.300000     -4.3160208E+08
   4.966667       3.300000     -4.3160208E+08
   3.973333       3.300000     -4.3160208E+08
   2.980000       3.300000     -4.3160208E+08
   1.986667       3.300000     -4.3160208E+08
  0.9933333       3.300000     -4.3160208E+08
  0.0000000E+00   3.300000     -4.3160208E+08
  0.0000000E+00   2.400000     -4.3160208E+08
  0.0000000E+00   1.650000     -4.3160208E+08
  0.0000000E+00  0.9000000     -4.3160208E+08
  0.9933333      0.8833334     -4.3160208E+08
   1.986667      0.8666667     -4.3160208E+08
   2.980000      0.8500000     -4.3160208E+08
   3.973333      0.8333334     -4.3160208E+08
   4.966667      0.8166667     -4.3160208E+08
  0.9933333       1.641667     -4.3160208E+08
   1.986667       1.633333     -4.3160208E+08
   2.980000       1.625000     -4.3160208E+08
   3.973333       1.616667     -4.3160208E+08
   4.966667       1.608333     -4.3160208E+08
  0.9933333       2.400000     -4.3160208E+08
   1.986667       2.400000     -4.3160208E+08
   2.980000       2.400000     -4.3160208E+08
   3.973333       2.400000     -4.3160208E+08
   4.966667       2.400000     -4.3160208E+08
           1           2          21          20
           2           3          22          21
           3           4          23          22
           4           5          24          23
           5           6          25          24
           6           7           8          25
          20          21          26          19
          21          22          27          26
          22          23          28          27
          23          24          29          28
          24          25          30          29
          25           8           9          30
          19          26          31          18
          26          27          32          31
          27          28          33          32
          28          29          34          33
          29          30          35          34
          30           9          10          35
          17          18          31          16
          16          31          32          15
          15          32          33          14
          14          33          34          13
          13          34          35          12
          35          10          11          12
 TITLE = "Example: 2D Finite-Element Data" 
 VARIABLES = "X", "Y" , "Z"
 ZONE N=          25 E=          16 F=FEPOINT, ET=QUADRILATERAL
  0.0000000E+00  0.0000000E+00 -4.3160208E+08
  0.9325000      0.0000000E+00 -4.3160208E+08
   1.865000      0.0000000E+00 -4.3160208E+08
   2.331250      0.0000000E+00 -4.3160208E+08
   2.797500      0.0000000E+00 -4.3160208E+08
   3.730000      0.0000000E+00 -4.3160208E+08
   3.730000       1.100000     -4.3160208E+08
   3.730000       2.200000     -4.3160208E+08
   3.730000       3.300000     -4.3160208E+08
   2.797500       3.300000     -4.3160208E+08
   1.865000       3.300000     -4.3160208E+08
  0.9325000       3.300000     -4.3160208E+08
  0.0000000E+00   3.300000     -4.3160208E+08
  0.0000000E+00   2.400000     -4.3160208E+08
  0.0000000E+00   1.600000     -4.3160208E+08
  0.0000000E+00  0.8000000     -4.3160208E+08
  0.8685355      0.7528992     -4.3160208E+08
   1.666285      0.6870323     -4.3160208E+08
   2.262010      0.5611192     -4.3160208E+08
   2.734757       1.034420     -4.3160208E+08
   2.786683       2.177235     -4.3160208E+08
   1.862343       2.330319     -4.3160208E+08
  0.9337451       2.397206     -4.3160208E+08
  0.9160631       1.544985     -4.3160208E+08
   1.821175       1.422482     -4.3160208E+08
           1           2          17          16
           2           3          18          17
           3           4          19          18
           4           5          20          19
           5           6           7          20
           7           8          21          20
           8           9          10          21
          10          11          22          21
          11          12          23          22
          12          13          14          23
          14          15          24          23
          15          16          17          24
          23          24          25          22
          24          17          18          25
          21          22          25          20
          20          25          18          19
 TITLE = "Example: 2D Finite-Element Data" 
 VARIABLES = "X", "Y" , "Z"
 ZONE N=          26 E=          13 F=FEPOINT, ET=QUADRILATERAL
  0.0000000E+00  0.0000000E+00 -4.3160208E+08
  0.8500000      0.0000000E+00 -4.3160208E+08
   1.183333      0.0000000E+00 -4.3160208E+08
   1.516667      0.0000000E+00 -4.3160208E+08
   1.850000      0.0000000E+00 -4.3160208E+08
   2.700000      0.0000000E+00 -4.3160208E+08
   2.700000      0.9000000     -4.3160208E+08
   2.700000       1.650000     -4.3160208E+08
   2.700000       2.400000     -4.3160208E+08
   2.700000       3.300000     -4.3160208E+08
   1.850000       3.300000     -4.3160208E+08
   1.350000       3.300000     -4.3160208E+08
  0.8500000       3.300000     -4.3160208E+08
  0.0000000E+00   3.300000     -4.3160208E+08
  0.0000000E+00   2.400000     -4.3160208E+08
  0.0000000E+00   1.650000     -4.3160208E+08
  0.0000000E+00  0.9000000     -4.3160208E+08
  0.8500000       2.400000     -4.3160208E+08
   1.850000       2.400000     -4.3160208E+08
   1.850000      0.9000000     -4.3160208E+08
  0.8500000      0.9000000     -4.3160208E+08
   1.516667      0.9000000     -4.3160208E+08
   1.183333      0.9000000     -4.3160208E+08
   1.850000       1.650000     -4.3160208E+08
   1.350000       2.400000     -4.3160208E+08
  0.8500000       1.650000     -4.3160208E+08
          17           1           2          21
          21           2           3          23
          23           3           4          22
           4           5          20          22
           5           6           7          20
          20           7           8          24
           8           9          19          24
           9          10          11          19
          19          11          12          25
          12          13          18          25
          13          14          15          18
          18          15          16          26
          16          17          21          26
 TITLE = "Example: 2D Finite-Element Data" 
 VARIABLES = "X", "Y" , "Z"
 ZONE N=          20 E=          12 F=FEPOINT, ET=QUADRILATERAL
   2.700000      0.0000000E+00 -4.3160208E+08
   3.600000      0.0000000E+00 -4.3160208E+08
   4.500000      0.0000000E+00 -4.3160208E+08
   5.400000      0.0000000E+00 -4.3160208E+08
   5.400000      0.8000000     -4.3160208E+08
   5.400000       1.600000     -4.3160208E+08
   5.400000       2.400000     -4.3160208E+08
   5.400000       3.300000     -4.3160208E+08
   4.500000       3.300000     -4.3160208E+08
   3.600000       3.300000     -4.3160208E+08
   2.700000       3.300000     -4.3160208E+08
   2.700000       2.400000     -4.3160208E+08
   2.700000       1.650000     -4.3160208E+08
   2.700000      0.9000000     -4.3160208E+08
   3.600000      0.8666667     -4.3160208E+08
   4.500000      0.8333334     -4.3160208E+08
   3.600000       1.633333     -4.3160208E+08
   4.500000       1.616667     -4.3160208E+08
   3.600000       2.400000     -4.3160208E+08
   4.500000       2.400000     -4.3160208E+08
           1           2          15          14
           2           3          16          15
           3           4           5          16
          14          15          17          13
          15          16          18          17
          16           5           6          18
          13          17          19          12
          17          18          20          19
          18           6           7          20
          11          12          19          10
          10          19          20           9
          20           7           8           9
 TITLE = "Example: 2D Finite-Element Data" 
 VARIABLES = "X", "Y" , "Z"
 ZONE N=          23 E=          10 F=FEPOINT, ET=QUADRILATERAL
   5.400000      0.0000000E+00 -4.3160208E+08
   6.250000      0.0000000E+00 -4.3160208E+08
   6.750000      0.0000000E+00 -4.3160208E+08
   7.250000      0.0000000E+00 -4.3160208E+08
   8.100000      0.0000000E+00 -4.3160208E+08
   8.100000      0.8000000     -4.3160208E+08
   8.100000       1.600000     -4.3160208E+08
   8.100000       2.400000     -4.3160208E+08
   8.100000       3.300000     -4.3160208E+08
   7.250000       3.300000     -4.3160208E+08
   6.750000       3.300000     -4.3160208E+08
   6.250000       3.300000     -4.3160208E+08
   5.400000       3.300000     -4.3160208E+08
   5.400000       2.400000     -4.3160208E+08
   5.400000       1.600000     -4.3160208E+08
   5.400000      0.8000000     -4.3160208E+08
   6.250000       2.400000     -4.3160208E+08
   7.250000       2.400000     -4.3160208E+08
   7.250000       1.600000     -4.3160208E+08
   7.250000      0.8000000     -4.3160208E+08
   6.750000       2.400000     -4.3160208E+08
   6.250000      0.8000000     -4.3160208E+08
   6.250000       1.600000     -4.3160208E+08
           4           5           6          20
          20           6           7          19
           7           8          18          19
           8           9          10          18
          18          10          11          21
          11          12          17          21
          12          13          14          17
          17          14          15          23
          23          15          16          22
          16           1           2          22
 TITLE = "Example: 2D Finite-Element Data" 
 VARIABLES = "X", "Y" , "Z"
 ZONE N=          29 E=          16 F=FEPOINT, ET=QUADRILATERAL
   8.100000      0.0000000E+00 -4.3160208E+08
   8.880000      0.0000000E+00 -4.3160208E+08
   9.660000      0.0000000E+00 -4.3160208E+08
   10.44000      0.0000000E+00 -4.3160208E+08
   11.44000      0.0000000E+00 -4.3160208E+08
   11.70000      0.0000000E+00 -4.3160208E+08
   11.70000      0.9000000     -4.3160208E+08
   11.70000       1.650000     -4.3160208E+08
   11.70000       2.400000     -4.3160208E+08
   11.70000       3.300000     -4.3160208E+08
   11.44000       3.300000     -4.3160208E+08
   10.94000       3.300000     -4.3160208E+08
   10.44000       3.300000     -4.3160208E+08
   9.270000       3.300000     -4.3160208E+08
   8.100000       3.300000     -4.3160208E+08
   8.100000       2.400000     -4.3160208E+08
   8.100000       1.600000     -4.3160208E+08
   8.100000      0.8000000     -4.3160208E+08
   10.44000       2.400000     -4.3160208E+08
   11.44000       2.400000     -4.3160208E+08
   11.44000       1.650000     -4.3160208E+08
   11.44000      0.9000000     -4.3160208E+08
   10.94000       2.400000     -4.3160208E+08
   9.270000       2.400000     -4.3160208E+08
   10.44000       1.200000     -4.3160208E+08
   8.953285       1.614827     -4.3160208E+08
   8.900490      0.8146335     -4.3160208E+08
   9.682343      0.8541486     -4.3160208E+08
   9.749736       1.675769     -4.3160208E+08
           5           6           7          22
          22           7           8          21
           8           9          20          21
           9          10          11          20
          20          11          12          23
          12          13          19          23
          19          13          14          24
          14          15          16          24
          16          17          26          24
          17          18          27          26
          18           1           2          27
           2           3          28          27
           3           4          25          28
          27          28          29          26
          28          25          19          29
          24          26          29          19
 TITLE = "Example: 2D Finite-Element Data" 
 VARIABLES = "X", "Y" , "Z"
 ZONE N=          26 E=          13 F=FEPOINT, ET=QUADRILATERAL
   11.70000      0.0000000E+00 -4.3160208E+08
   12.55000      0.0000000E+00 -4.3160208E+08
   12.88333      0.0000000E+00 -4.3160208E+08
   13.21667      0.0000000E+00 -4.3160208E+08
   13.55000      0.0000000E+00 -4.3160208E+08
   14.40000      0.0000000E+00 -4.3160208E+08
   14.40000      0.9000000     -4.3160208E+08
   14.40000       1.650000     -4.3160208E+08
   14.40000       2.400000     -4.3160208E+08
   14.40000       3.300000     -4.3160208E+08
   13.55000       3.300000     -4.3160208E+08
   13.05000       3.300000     -4.3160208E+08
   12.55000       3.300000     -4.3160208E+08
   11.70000       3.300000     -4.3160208E+08
   11.70000       2.400000     -4.3160208E+08
   11.70000       1.650000     -4.3160208E+08
   11.70000      0.9000000     -4.3160208E+08
   12.55000       2.400000     -4.3160208E+08
   13.55000       2.400000     -4.3160208E+08
   13.55000      0.9000000     -4.3160208E+08
   12.55000      0.9000000     -4.3160208E+08
   13.21667      0.9000000     -4.3160208E+08
   12.88333      0.9000000     -4.3160208E+08
   13.55000       1.650000     -4.3160208E+08
   13.05000       2.400000     -4.3160208E+08
   12.55000       1.650000     -4.3160208E+08
          17           1           2          21
          21           2           3          23
          23           3           4          22
           4           5          20          22
           5           6           7          20
          20           7           8          24
           8           9          19          24
           9          10          11          19
          19          11          12          25
          12          13          18          25
          13          14          15          18
          18          15          16          26
          16          17          21          26
 TITLE = "Example: 2D Finite-Element Data" 
 VARIABLES = "X", "Y" , "Z"
 ZONE N=          20 E=          12 F=FEPOINT, ET=QUADRILATERAL
   14.40000      0.0000000E+00 -4.3160208E+08
   15.30000      0.0000000E+00 -4.3160208E+08
   16.20000      0.0000000E+00 -4.3160208E+08
   17.10000      0.0000000E+00 -4.3160208E+08
   17.10000      0.8000000     -4.3160208E+08
   17.10000       1.600000     -4.3160208E+08
   17.10000       2.400000     -4.3160208E+08
   17.10000       3.300000     -4.3160208E+08
   16.20000       3.300000     -4.3160208E+08
   15.30000       3.300000     -4.3160208E+08
   14.40000       3.300000     -4.3160208E+08
   14.40000       2.400000     -4.3160208E+08
   14.40000       1.650000     -4.3160208E+08
   14.40000      0.9000000     -4.3160208E+08
   15.30000      0.8666667     -4.3160208E+08
   16.20000      0.8333333     -4.3160208E+08
   15.30000       1.633333     -4.3160208E+08
   16.20000       1.616667     -4.3160208E+08
   15.30000       2.400000     -4.3160208E+08
   16.20000       2.400000     -4.3160208E+08
           1           2          15          14
           2           3          16          15
           3           4           5          16
          14          15          17          13
          15          16          18          17
          16           5           6          18
          13          17          19          12
          17          18          20          19
          18           6           7          20
          11          12          19          10
          10          19          20           9
          20           7           8           9
 TITLE = "Example: 2D Finite-Element Data" 
 VARIABLES = "X", "Y" , "Z"
 ZONE N=          23 E=          10 F=FEPOINT, ET=QUADRILATERAL
   17.10000      0.0000000E+00 -4.3160208E+08
   17.95000      0.0000000E+00 -4.3160208E+08
   18.45000      0.0000000E+00 -4.3160208E+08
   18.95000      0.0000000E+00 -4.3160208E+08
   19.80000      0.0000000E+00 -4.3160208E+08
   19.80000      0.8000000     -4.3160208E+08
   19.80000       1.600000     -4.3160208E+08
   19.80000       2.400000     -4.3160208E+08
   19.80000       3.300000     -4.3160208E+08
   18.95000       3.300000     -4.3160208E+08
   18.45000       3.300000     -4.3160208E+08
   17.95000       3.300000     -4.3160208E+08
   17.10000       3.300000     -4.3160208E+08
   17.10000       2.400000     -4.3160208E+08
   17.10000       1.600000     -4.3160208E+08
   17.10000      0.8000000     -4.3160208E+08
   17.95000       2.400000     -4.3160208E+08
   18.95000       2.400000     -4.3160208E+08
   18.95000       1.600000     -4.3160208E+08
   18.95000      0.8000000     -4.3160208E+08
   18.45000       2.400000     -4.3160208E+08
   17.95000      0.8000000     -4.3160208E+08
   17.95000       1.600000     -4.3160208E+08
           4           5           6          20
          20           6           7          19
           7           8          18          19
           8           9          10          18
          18          10          11          21
          11          12          17          21
          12          13          14          17
          17          14          15          23
          23          15          16          22
          16           1           2          22
 TITLE = "Example: 2D Finite-Element Data" 
 VARIABLES = "X", "Y" , "Z"
 ZONE N=          37 E=          22 F=FEPOINT, ET=QUADRILATERAL
   19.80000      0.0000000E+00 -4.3160208E+08
   20.42500      0.0000000E+00 -4.3160208E+08
   21.05000      0.0000000E+00 -4.3160208E+08
   21.67500      0.0000000E+00 -4.3160208E+08
   22.30000      0.0000000E+00 -4.3160208E+08
   23.30000      0.0000000E+00 -4.3160208E+08
   23.76000      0.0000000E+00 -4.3160208E+08
   23.76000      0.8000000     -4.3160208E+08
   23.76000       1.600000     -4.3160208E+08
   23.76000       2.400000     -4.3160208E+08
   23.76000       3.300000     -4.3160208E+08
   23.30000       3.300000     -4.3160208E+08
   22.80000       3.300000     -4.3160208E+08
   22.30000       3.300000     -4.3160208E+08
   21.46667       3.300000     -4.3160208E+08
   20.63333       3.300000     -4.3160208E+08
   19.80000       3.300000     -4.3160208E+08
   19.80000       2.400000     -4.3160208E+08
   19.80000       1.600000     -4.3160208E+08
   19.80000      0.8000000     -4.3160208E+08
   22.30000       2.400000     -4.3160208E+08
   23.30000       2.400000     -4.3160208E+08
   23.30000       1.600000     -4.3160208E+08
   23.30000      0.8000000     -4.3160208E+08
   22.80000       2.400000     -4.3160208E+08
   20.63333       2.400000     -4.3160208E+08
   21.46667       2.400000     -4.3160208E+08
   22.30000      0.6000000     -4.3160208E+08
   22.30000       1.200000     -4.3160208E+08
   22.30000       1.800000     -4.3160208E+08
   20.72082       1.526428     -4.3160208E+08
   20.49793      0.7432626     -4.3160208E+08
   21.09542      0.5939007     -4.3160208E+08
   21.69484      0.5919145     -4.3160208E+08
   21.70200       1.178771     -4.3160208E+08
   21.52795       1.734753     -4.3160208E+08
   21.15803       1.119461     -4.3160208E+08
           6           7           8          24
          24           8           9          23
           9          10          22          23
          10          11          12          22
          22          12          13          25
          13          14          21          25
          21          14          15          27
          27          15          16          26
          16          17          18          26
          18          19          31          26
          19          20          32          31
          20           1           2          32
           2           3          33          32
           3           4          34          33
           4           5          28          34
          28          29          35          34
          29          30          36          35
          30          21          27          36
          27          26          31          36
          34          35          37          33
          35          36          31          37
          31          32          33          37
 TITLE = "Example: 2D Finite-Element Data" 
 VARIABLES = "X", "Y" , "Z"
 ZONE N=          23 E=          10 F=FEPOINT, ET=QUADRILATERAL
  0.0000000E+00  0.0000000E+00 -4.3160208E+08
  0.8500000      0.0000000E+00 -4.3160208E+08
   1.350000      0.0000000E+00 -4.3160208E+08
   1.850000      0.0000000E+00 -4.3160208E+08
   2.700000      0.0000000E+00 -4.3160208E+08
   2.700000      0.8000000     -4.3160208E+08
   2.700000       1.600000     -4.3160208E+08
   2.700000       2.400000     -4.3160208E+08
   2.700000       3.300000     -4.3160208E+08
   1.850000       3.300000     -4.3160208E+08
   1.350000       3.300000     -4.3160208E+08
  0.8500000       3.300000     -4.3160208E+08
  0.0000000E+00   3.300000     -4.3160208E+08
  0.0000000E+00   2.400000     -4.3160208E+08
  0.0000000E+00   1.600000     -4.3160208E+08
  0.0000000E+00  0.8000000     -4.3160208E+08
  0.8500000       2.400000     -4.3160208E+08
   1.850000       2.400000     -4.3160208E+08
   1.850000       1.600000     -4.3160208E+08
   1.850000      0.8000000     -4.3160208E+08
   1.350000       2.400000     -4.3160208E+08
  0.8500000      0.8000000     -4.3160208E+08
  0.8500000       1.600000     -4.3160208E+08
           4           5           6          20
          20           6           7          19
           7           8          18          19
           8           9          10          18
          18          10          11          21
          11          12          17          21
          12          13          14          17
          17          14          15          23
          23          15          16          22
          16           1           2          22
 TITLE = "Example: 2D Finite-Element Data" 
 VARIABLES = "X", "Y" , "Z"
 ZONE N=          20 E=          12 F=FEPOINT, ET=QUADRILATERAL
   2.700000      0.0000000E+00 -4.3160208E+08
   3.600000      0.0000000E+00 -4.3160208E+08
   4.500000      0.0000000E+00 -4.3160208E+08
   5.400000      0.0000000E+00 -4.3160208E+08
   5.400000      0.9000000     -4.3160208E+08
   5.400000       1.650000     -4.3160208E+08
   5.400000       2.400000     -4.3160208E+08
   5.400000       3.300000     -4.3160208E+08
   4.500000       3.300000     -4.3160208E+08
   3.600000       3.300000     -4.3160208E+08
   2.700000       3.300000     -4.3160208E+08
   2.700000       2.400000     -4.3160208E+08
   2.700000       1.600000     -4.3160208E+08
   2.700000      0.8000000     -4.3160208E+08
   3.600000      0.8333333     -4.3160208E+08
   4.500000      0.8666667     -4.3160208E+08
   3.600000       1.616667     -4.3160208E+08
   4.500000       1.633333     -4.3160208E+08
   3.600000       2.400000     -4.3160208E+08
   4.500000       2.400000     -4.3160208E+08
           1           2          15          14
           2           3          16          15
           3           4           5          16
          14          15          17          13
          15          16          18          17
          16           5           6          18
          13          17          19          12
          17          18          20          19
          18           6           7          20
          11          12          19          10
          10          19          20           9
          20           7           8           9
 TITLE = "Example: 2D Finite-Element Data" 
 VARIABLES = "X", "Y" , "Z"
 ZONE N=          26 E=          13 F=FEPOINT, ET=QUADRILATERAL
   5.400000      0.0000000E+00 -4.3160208E+08
   6.250000      0.0000000E+00 -4.3160208E+08
   6.583333      0.0000000E+00 -4.3160208E+08
   6.916667      0.0000000E+00 -4.3160208E+08
   7.250000      0.0000000E+00 -4.3160208E+08
   8.100000      0.0000000E+00 -4.3160208E+08
   8.100000      0.9000000     -4.3160208E+08
   8.100000       1.650000     -4.3160208E+08
   8.100000       2.400000     -4.3160208E+08
   8.100000       3.300000     -4.3160208E+08
   7.250000       3.300000     -4.3160208E+08
   6.750000       3.300000     -4.3160208E+08
   6.250000       3.300000     -4.3160208E+08
   5.400000       3.300000     -4.3160208E+08
   5.400000       2.400000     -4.3160208E+08
   5.400000       1.650000     -4.3160208E+08
   5.400000      0.9000000     -4.3160208E+08
   6.250000       2.400000     -4.3160208E+08
   7.250000       2.400000     -4.3160208E+08
   7.250000      0.9000000     -4.3160208E+08
   6.250000      0.9000000     -4.3160208E+08
   6.916667      0.9000000     -4.3160208E+08
   6.583333      0.9000000     -4.3160208E+08
   7.250000       1.650000     -4.3160208E+08
   6.750000       2.400000     -4.3160208E+08
   6.250000       1.650000     -4.3160208E+08
          17           1           2          21
          21           2           3          23
          23           3           4          22
           4           5          20          22
           5           6           7          20
          20           7           8          24
           8           9          19          24
           9          10          11          19
          19          11          12          25
          12          13          18          25
          13          14          15          18
          18          15          16          26
          16          17          21          26
 TITLE = "Example: 2D Finite-Element Data" 
 VARIABLES = "X", "Y" , "Z"
 ZONE N=          30 E=          15 F=FEPOINT, ET=QUADRILATERAL
   8.100000      0.0000000E+00 -4.3160208E+08
   9.150001      0.0000000E+00 -4.3160208E+08
   9.650001      0.0000000E+00 -4.3160208E+08
   10.15000      0.0000000E+00 -4.3160208E+08
   10.65000      0.0000000E+00 -4.3160208E+08
   11.70000      0.0000000E+00 -4.3160208E+08
   11.70000      0.8999999     -4.3160208E+08
   11.70000       1.650000     -4.3160208E+08
   11.70000       2.400000     -4.3160208E+08
   11.70000       3.300000     -4.3160208E+08
   10.65000       3.300000     -4.3160208E+08
   10.27500       3.300000     -4.3160208E+08
   9.900001       3.300000     -4.3160208E+08
   9.525001       3.300000     -4.3160208E+08
   9.150001       3.300000     -4.3160208E+08
   8.100000       3.300000     -4.3160208E+08
   8.100000       2.400000     -4.3160208E+08
   8.100000       1.650000     -4.3160208E+08
   8.100000      0.9000000     -4.3160208E+08
   9.150001       2.400000     -4.3160208E+08
   10.65000       2.400000     -4.3160208E+08
   10.65000      0.9000000     -4.3160208E+08
   9.150001      0.9000000     -4.3160208E+08
   10.15000      0.9000000     -4.3160208E+08
   9.650001      0.9000000     -4.3160208E+08
   10.65000       1.650000     -4.3160208E+08
   9.525001       2.400000     -4.3160208E+08
   9.900001       2.400000     -4.3160208E+08
   10.27500       2.400000     -4.3160208E+08
   9.150001       1.650000     -4.3160208E+08
          19           1           2          23
          23           2           3          25
          25           3           4          24
           4           5          22          24
           5           6           7          22
          22           7           8          26
           8           9          21          26
           9          10          11          21
          21          11          12          29
          29          12          13          28
          28          13          14          27
          14          15          20          27
          15          16          17          20
          20          17          18          30
          18          19          23          30
 TITLE = "Example: 2D Finite-Element Data" 
 VARIABLES = "X", "Y" , "Z"
 ZONE N=          23 E=          10 F=FEPOINT, ET=QUADRILATERAL
   11.70000      0.0000000E+00 -4.3160208E+08
   12.55000      0.0000000E+00 -4.3160208E+08
   13.05000      0.0000000E+00 -4.3160208E+08
   13.55000      0.0000000E+00 -4.3160208E+08
   14.40000      0.0000000E+00 -4.3160208E+08
   14.40000      0.8000000     -4.3160208E+08
   14.40000       1.600000     -4.3160208E+08
   14.40000       2.400000     -4.3160208E+08
   14.40000       3.300000     -4.3160208E+08
   13.55000       3.300000     -4.3160208E+08
   13.05000       3.300000     -4.3160208E+08
   12.55000       3.300000     -4.3160208E+08
   11.70000       3.300000     -4.3160208E+08
   11.70000       2.400000     -4.3160208E+08
   11.70000       1.650000     -4.3160208E+08
   11.70000      0.8999999     -4.3160208E+08
   12.55000       2.400000     -4.3160208E+08
   13.55000       2.400000     -4.3160208E+08
   13.55000       1.600000     -4.3160208E+08
   13.55000      0.8000000     -4.3160208E+08