 TITLE = "Example: 2D Finite-Element Data" 
 VARIABLES = "X", "Y" , "Z"
 ZONE N=          36 E=          20 F=FEPOINT, ET=QUADRILATERAL
  0.0000000E+00  0.0000000E+00 -4.3160208E+08
  0.9649999      0.0000000E+00 -4.3160208E+08
   1.930000      0.0000000E+00 -4.3160208E+08
   2.830000      0.0000000E+00 -4.3160208E+08
   3.730000      0.0000000E+00 -4.3160208E+08
   4.473333      0.0000000E+00 -4.3160208E+08
   5.216667      0.0000000E+00 -4.3160208E+08
   5.960000      0.0000000E+00 -4.3160208E+08
   5.960000      0.8000000     -4.3160208E+08
   5.960000       1.600000     -4.3160208E+08
   5.960000       2.400000     -4.3160208E+08
   5.960000       3.300000     -4.3160208E+08
   4.845000       3.300000     -4.3160208E+08
   3.730000       3.300000     -4.3160208E+08
   3.130000       3.300000     -4.3160208E+08
   2.530000       3.300000     -4.3160208E+08
   1.930000       3.300000     -4.3160208E+08
  0.9649999       3.300000     -4.3160208E+08
  0.0000000E+00   3.300000     -4.3160208E+08
  0.0000000E+00   2.400000     -4.3160208E+08
  0.0000000E+00   1.600000     -4.3160208E+08
  0.0000000E+00  0.8000000     -4.3160208E+08
   1.930000       2.400000     -4.3160208E+08
   3.730000       2.400000     -4.3160208E+08
   4.845000       2.400000     -4.3160208E+08
   3.730000       1.200000     -4.3160208E+08
   2.530000       2.400000     -4.3160208E+08
   3.130000       2.400000     -4.3160208E+08
  0.9650000       2.400000     -4.3160208E+08
   1.930000      0.8000000     -4.3160208E+08
   1.930000       1.600000     -4.3160208E+08
   5.152847      0.7511431     -4.3160208E+08
   4.869252       1.497590     -4.3160208E+08
   4.423160      0.6681390     -4.3160208E+08
  0.9650000       1.600000     -4.3160208E+08
  0.9649999      0.8000000     -4.3160208E+08
           8           9          32           7
           9          10          33          32
          10          11          25          33
          25          24          26          33
           7          32          34           6
          32          33          26          34
           6          34          26           5
          11          12          13          25
          25          13          14          24
          24          14          15          28
          28          15          16          27
          16          17          23          27
          23          17          18          29
          18          19          20          29
          20          21          35          29
          21          22          36          35
          22           1           2          36
          23          29          35          31
          31          35          36          30
          36           2           3          30
 TITLE = "Example: 2D Finite-Element Data" 
 VARIABLES = "X", "Y" , "Z"
 ZONE N=          35 E=          24 F=FEPOINT, ET=QUADRILATERAL
  0.0000000E+00  0.0000000E+00 -4.3160208E+08
  0.9933333      0.0000000E+00 -4.3160208E+08
   1.986667      0.0000000E+00 -4.3160208E+08
   2.980000      0.0000000E+00 -4.3160208E+08
   3.973333      0.0000000E+00 -4.3160208E+08
   4.966667      0.0000000E+00 -4.3160208E+08
   5.960000      0.0000000E+00 -4.3160208E+08
   5.960000      0.8000000     -4.3160208E+08
   5.960000       1.600000     -4.3160208E+08
   5.960000       2.400000     -4.3160208E+08
   5.960000       3.300000     -4.3160208E+08
   4.966667       3.300000     -4.3160208E+08
   3.973333       3.300000     -4.3160208E+08
   2.980000       3.300000     -4.3160208E+08
   1.986667       3.300000     -4.3160208E+08
  0.9933333       3.300000     -4.3160208E+08
  0.0000000E+00   3.300000     -4.3160208E+08
  0.0000000E+00   2.400000     -4.3160208E+08
  0.0000000E+00   1.600000     -4.3160208E+08
  0.0000000E+00  0.8000000     -4.3160208E+08
  0.9933333      0.8000000     -4.3160208E+08
   1.986667      0.8000000     -4.3160208E+08
   2.980000      0.8000000     -4.3160208E+08
   3.973333      0.8000000     -4.3160208E+08
   4.966667      0.8000000     -4.3160208E+08
  0.9933333       1.600000     -4.3160208E+08
   1.986667       1.600000     -4.3160208E+08
   2.980000       1.600000     -4.3160208E+08
   3.973333       1.600000     -4.3160208E+08
   4.966667       1.600000     -4.3160208E+08
  0.9933333       2.400000     -4.3160208E+08
   1.986667       2.400000     -4.3160208E+08
   2.980000       2.400000     -4.3160208E+08
   3.973333       2.400000     -4.3160208E+08
   4.966667       2.400000     -4.3160208E+08
           1           2          21          20
           2           3          22          21
           3           4          23          22
           4           5          24          23
           5           6          25          24
           6           7           8          25
          20          21          26          19
          21          22          27          26
          22          23          28          27
          23          24          29          28
          24          25          30          29
          25           8           9          30
          19          26          31          18
          26          27          32          31
          27          28          33          32
          28          29          34          33
          29          30          35          34
          30           9          10          35
          17          18          31          16
          16          31          32          15
          15          32          33          14
          14          33          34          13
          13          34          35          12
          35          10          11          12
 TITLE = "Example: 2D Finite-Element Data" 
 VARIABLES = "X", "Y" , "Z"
 ZONE N=          35 E=          24 F=FEPOINT, ET=QUADRILATERAL
  0.0000000E+00  0.0000000E+00 -4.3160208E+08
  0.9933333      0.0000000E+00 -4.3160208E+08
   1.986667      0.0000000E+00 -4.3160208E+08
   2.980000      0.0000000E+00 -4.3160208E+08
   3.973333      0.0000000E+00 -4.3160208E+08
   4.966667      0.0000000E+00 -4.3160208E+08
   5.960000      0.0000000E+00 -4.3160208E+08
   5.960000      0.8000000     -4.3160208E+08
   5.960000       1.600000     -4.3160208E+08
   5.960000       2.400000     -4.3160208E+08
   5.960000       3.300000     -4.3160208E+08
   4.966667       3.300000     -4.3160208E+08
   3.973333       3.300000     -4.3160208E+08
   2.980000       3.300000     -4.3160208E+08
   1.986667       3.300000     -4.3160208E+08
  0.9933333       3.300000     -4.3160208E+08
  0.0000000E+00   3.300000     -4.3160208E+08
  0.0000000E+00   2.400000     -4.3160208E+08
  0.0000000E+00   1.600000     -4.3160208E+08
  0.0000000E+00  0.8000000     -4.3160208E+08
  0.9933333      0.8000000     -4.3160208E+08
   1.986667      0.8000000     -4.3160208E+08
   2.980000      0.8000000     -4.3160208E+08
   3.973333      0.8000000     -4.3160208E+08
   4.966667      0.8000000     -4.3160208E+08
  0.9933333       1.600000     -4.3160208E+08
   1.986667       1.600000     -4.3160208E+08
   2.980000       1.600000     -4.3160208E+08
   3.973333       1.600000     -4.3160208E+08
   4.966667       1.600000     -4.3160208E+08
  0.9933333       2.400000     -4.3160208E+08
   1.986667       2.400000     -4.3160208E+08
   2.980000       2.400000     -4.3160208E+08
   3.973333       2.400000     -4.3160208E+08
   4.966667       2.400000     -4.3160208E+08
           1           2          21          20
           2           3          22          21
           3           4          23          22
           4           5          24          23
           5           6          25          24
           6           7           8          25
          20          21          26          19
          21          22          27          26
          22          23          28          27
          23          24          29          28
          24          25          30          29
          25           8           9          30
          19          26          31          18
          26          27          32          31
          27          28          33          32
          28          29          34          33
          29          30          35          34
          30           9          10          35
          17          18          31          16
          16          31          32          15
          15          32          33          14
          14          33          34          13
          13          34          35          12
          35          10          11          12
 TITLE = "Example: 2D Finite-Element Data" 
 VARIABLES = "X", "Y" , "Z"
 ZONE N=          25 E=          16 F=FEPOINT, ET=QUADRILATERAL
  0.0000000E+00  0.0000000E+00 -4.3160208E+08
  0.9325000      0.0000000E+00 -4.3160208E+08
   1.865000      0.0000000E+00 -4.3160208E+08
   2.331250      0.0000000E+00 -4.3160208E+08
   2.797500      0.0000000E+00 -4.3160208E+08
   3.730000      0.0000000E+00 -4.3160208E+08
   3.730000       1.100000     -4.3160208E+08
   3.730000       2.200000     -4.3160208E+08
   3.730000       3.300000     -4.3160208E+08
   2.797500       3.300000     -4.3160208E+08
   1.865000       3.300000     -4.3160208E+08
  0.9325000       3.300000     -4.3160208E+08
  0.0000000E+00   3.300000     -4.3160208E+08
  0.0000000E+00   2.400000     -4.3160208E+08
  0.0000000E+00   1.600000     -4.3160208E+08
  0.0000000E+00  0.8000000     -4.3160208E+08
  0.8685355      0.7528992     -4.3160208E+08
   1.666285      0.6870323     -4.3160208E+08
   2.262010      0.5611192     -4.3160208E+08
   2.734757       1.034420     -4.3160208E+08
   2.786683       2.177235     -4.3160208E+08
   1.862343       2.330319     -4.3160208E+08
  0.9337451       2.397206     -4.3160208E+08
  0.9160631       1.544985     -4.3160208E+08
   1.821175       1.422482     -4.3160208E+08
           1           2          17          16
           2           3          18          17
           3           4          19          18
           4           5          20          19
           5           6           7          20
           7           8          21          20
           8           9          10          21
          10          11          22          21
          11          12          23          22
          12          13          14          23
          14          15          24          23
          15          16          17          24
          23          24          25          22
          24          17          18          25
          21          22          25          20
          20          25          18          19
 TITLE = "Example: 2D Finite-Element Data" 
 VARIABLES = "X", "Y" , "Z"
 ZONE N=          26 E=          11 F=FEPOINT, ET=QUADRILATERAL
  0.0000000E+00  0.0000000E+00 -4.3160208E+08
  0.9300000      0.0000000E+00 -4.3160208E+08
   1.430000      0.0000000E+00 -4.3160208E+08
   1.930000      0.0000000E+00 -4.3160208E+08
   2.430000      0.0000000E+00 -4.3160208E+08
   3.730000      0.0000000E+00 -4.3160208E+08
   3.730000      0.9000000     -4.3160208E+08
   3.730000       1.650000     -4.3160208E+08
   3.730000       2.400000     -4.3160208E+08
   3.730000       3.300000     -4.3160208E+08
   2.430000       3.300000     -4.3160208E+08
   1.930000       3.300000     -4.3160208E+08
   1.430000       3.300000     -4.3160208E+08
  0.9300000       3.300000     -4.3160208E+08
  0.0000000E+00   3.300000     -4.3160208E+08
  0.0000000E+00   2.400000     -4.3160208E+08
  0.0000000E+00   1.600000     -4.3160208E+08
  0.0000000E+00  0.8000000     -4.3160208E+08
  0.9300000       2.400000     -4.3160208E+08
   2.430000       2.400000     -4.3160208E+08
   2.430000       1.650000     -4.3160208E+08
   2.430000      0.9000000     -4.3160208E+08
   1.430000       2.400000     -4.3160208E+08
   1.930000       2.400000     -4.3160208E+08
  0.9300000      0.8000000     -4.3160208E+08
  0.9300000       1.600000     -4.3160208E+08
           5           6           7          22
          22           7           8          21
           8           9          20          21
           9          10          11          20
          20          11          12          24
          24          12          13          23
          13          14          19          23
          14          15          16          19
          19          16          17          26
          26          17          18          25
          18           1           2          25
 TITLE = "Example: 2D Finite-Element Data" 
 VARIABLES = "X", "Y" , "Z"
 ZONE N=          23 E=          10 F=FEPOINT, ET=QUADRILATERAL
  0.0000000E+00  0.0000000E+00 -4.3160208E+08
  0.8900000      0.0000000E+00 -4.3160208E+08
   1.390000      0.0000000E+00 -4.3160208E+08
   1.890000      0.0000000E+00 -4.3160208E+08
   2.700000      0.0000000E+00 -4.3160208E+08
   2.700000      0.8000000     -4.3160208E+08
   2.700000       1.600000     -4.3160208E+08
   2.700000       2.400000     -4.3160208E+08
   2.700000       3.300000     -4.3160208E+08
   1.790000       3.300000     -4.3160208E+08
   1.340000       3.300000     -4.3160208E+08
  0.8900000       3.300000     -4.3160208E+08
  0.0000000E+00   3.300000     -4.3160208E+08
  0.0000000E+00   2.400000     -4.3160208E+08
  0.0000000E+00   1.600000     -4.3160208E+08
  0.0000000E+00  0.8000000     -4.3160208E+08
  0.8900000       2.400000     -4.3160208E+08
   1.890000       2.400000     -4.3160208E+08
   1.890000       1.600000     -4.3160208E+08
   1.890000      0.8000000     -4.3160208E+08
   1.390000       2.400000     -4.3160208E+08
  0.8900000      0.8000000     -4.3160208E+08
  0.8900000       1.600000     -4.3160208E+08
           4           5           6          20
          20           6           7          19
           7           8          18          19
           8           9          10          18
          18          10          11          21
          11          12          17          21
          12          13          14          17
          17          14          15          23
          23          15          16          22
          16           1           2          22
 TITLE = "Example: 2D Finite-Element Data" 
 VARIABLES = "X", "Y" , "Z"
 ZONE N=          23 E=          10 F=FEPOINT, ET=QUADRILATERAL
   2.700000      0.0000000E+00 -4.3160208E+08
   3.300000      0.0000000E+00 -4.3160208E+08
   4.050000      0.0000000E+00 -4.3160208E+08
   4.800000      0.0000000E+00 -4.3160208E+08
   5.400000      0.0000000E+00 -4.3160208E+08
   5.400000      0.8000000     -4.3160208E+08
   5.400000       1.600000     -4.3160208E+08
   5.400000       2.400000     -4.3160208E+08
   5.400000       3.300000     -4.3160208E+08
   4.800000       3.300000     -4.3160208E+08
   4.050000       3.300000     -4.3160208E+08
   3.300000       3.300000     -4.3160208E+08
   2.700000       3.300000     -4.3160208E+08
   2.700000       2.400000     -4.3160208E+08
   2.700000       1.600000     -4.3160208E+08
   2.700000      0.8000000     -4.3160208E+08
   3.300000       2.400000     -4.3160208E+08
   4.800000       2.400000     -4.3160208E+08
   4.800000       1.600000     -4.3160208E+08
   4.800000      0.8000000     -4.3160208E+08
   4.050000       2.400000     -4.3160208E+08
   3.300000      0.8000000     -4.3160208E+08
   3.300000       1.600000     -4.3160208E+08
           4           5           6          20
          20           6           7          19
           7           8          18          19
           8           9          10          18
          18          10          11          21
          11          12          17          21
          12          13          14          17
          17          14          15          23
          23          15          16          22
          16           1           2          22
 TITLE = "Example: 2D Finite-Element Data" 
 VARIABLES = "X", "Y" , "Z"
 ZONE N=          23 E=          10 F=FEPOINT, ET=QUADRILATERAL
   5.400000      0.0000000E+00 -4.3160208E+08
   6.210000      0.0000000E+00 -4.3160208E+08
   6.710000      0.0000000E+00 -4.3160208E+08
   7.210000      0.0000000E+00 -4.3160208E+08
   8.100000      0.0000000E+00 -4.3160208E+08
   8.100000      0.8000000     -4.3160208E+08
   8.100000       1.600000     -4.3160208E+08
   8.100000       2.400000     -4.3160208E+08
   8.100000       3.300000     -4.3160208E+08
   7.210000       3.300000     -4.3160208E+08
   6.750000       3.300000     -4.3160208E+08
   6.210000       3.300000     -4.3160208E+08
   5.400000       3.300000     -4.3160208E+08
   5.400000       2.400000     -4.3160208E+08
   5.400000       1.600000     -4.3160208E+08
   5.400000      0.8000000     -4.3160208E+08
   6.210000       2.400000     -4.3160208E+08
   7.210000       2.400000     -4.3160208E+08
   7.210000       1.600000     -4.3160208E+08
   7.210000      0.8000000     -4.3160208E+08
   6.750000       2.400000     -4.3160208E+08
   6.210000      0.8000000     -4.3160208E+08
   6.210000       1.600000     -4.3160208E+08
           4           5           6          20
          20           6           7          19
           7           8          18          19
           8           9          10          18
          18          10          11          21
          11          12          17          21
          12          13          14          17
          17          14          15          23
          23          15          16          22
          16           1           2          22
 TITLE = "Example: 2D Finite-Element Data" 
 VARIABLES = "X", "Y" , "Z"
 ZONE N=          26 E=          12 F=FEPOINT, ET=QUADRILATERAL
   8.100000      0.0000000E+00 -4.3160208E+08
   9.150001      0.0000000E+00 -4.3160208E+08
   9.650001      0.0000000E+00 -4.3160208E+08
   10.15000      0.0000000E+00 -4.3160208E+08
   10.65000      0.0000000E+00 -4.3160208E+08
   11.70000      0.0000000E+00 -4.3160208E+08
   11.70000      0.8000000     -4.3160208E+08
   11.70000       1.600000     -4.3160208E+08
   11.70000       2.400000     -4.3160208E+08
   11.70000       3.300000     -4.3160208E+08
   11.42100       3.300000     -4.3160208E+08
   10.52100       3.300000     -4.3160208E+08
   9.900000       3.300000     -4.3160208E+08
   9.150001       3.300000     -4.3160208E+08
   8.100000       3.300000     -4.3160208E+08
   8.100000       2.400000     -4.3160208E+08
   8.100000       1.600000     -4.3160208E+08
   8.100000      0.8000000     -4.3160208E+08
   9.150001       2.400000     -4.3160208E+08
   10.65000       2.400000     -4.3160208E+08
   11.45153       2.400000     -4.3160208E+08
   10.65000       1.200000     -4.3160208E+08
   9.970569       2.400000     -4.3160208E+08
   9.150001      0.8000000     -4.3160208E+08
   9.150001       1.600000     -4.3160208E+08
   11.22360       1.745887     -4.3160208E+08
           5           6           7          22
           9          21          26           8
          21          20          22          26
          22           7           8          26
           9          10          11          21
          21          11          12          20
          20          12          13          23
          13          14          19          23
          14          15          16          19
          19          16          17          25
          25          17          18          24
          18           1           2          24
 TITLE = "Example: 2D Finite-Element Data" 
 VARIABLES = "X", "Y" , "Z"
 ZONE N=          23 E=          10 F=FEPOINT, ET=QUADRILATERAL
   11.70000      0.0000000E+00 -4.3160208E+08
   12.59000      0.0000000E+00 -4.3160208E+08
   13.09000      0.0000000E+00 -4.3160208E+08
   13.59000      0.0000000E+00 -4.3160208E+08
   14.40000      0.0000000E+00 -4.3160208E+08
   14.40000      0.8000000     -4.3160208E+08
   14.40000       1.600000     -4.3160208E+08
   14.40000       2.400000     -4.3160208E+08
   14.40000       3.300000     -4.3160208E+08
   13.59000       3.300000     -4.3160208E+08
   13.05000       3.300000     -4.3160208E+08
   12.59000       3.300000     -4.3160208E+08
   11.70000       3.300000     -4.3160208E+08
   11.70000       2.400000     -4.3160208E+08
   11.70000       1.600000     -4.3160208E+08
   11.70000      0.8000000     -4.3160208E+08
   12.59000       2.400000     -4.3160208E+08
   13.59000       2.400000     -4.3160208E+08
   13.59000       1.600000     -4.3160208E+08
   13.59000      0.8000000     -4.3160208E+08
   13.05000       2.400000     -4.3160208E+08
   12.59000      0.8000000     -4.3160208E+08
   12.59000       1.600000     -4.3160208E+08
           4           5           6          20
          20           6           7          19
           7           8          18          19
           8           9          10          18
          18          10          11          21
          11          12          17          21
          12          13          14          17
          17          14          15          23
          23          15          16          22
          16           1           2          22
 TITLE = "Example: 2D Finite-Element Data" 
 VARIABLES = "X", "Y" , "Z"
 ZONE N=          26 E=          11 F=FEPOINT, ET=QUADRILATERAL
   14.40000      0.0000000E+00 -4.3160208E+08
   15.00000      0.0000000E+00 -4.3160208E+08
   15.50000      0.0000000E+00 -4.3160208E+08
   16.00000      0.0000000E+00 -4.3160208E+08
   16.50000      0.0000000E+00 -4.3160208E+08
   17.10000      0.0000000E+00 -4.3160208E+08
   17.10000      0.8000000     -4.3160208E+08
   17.10000       1.600000     -4.3160208E+08
   17.10000       2.400000     -4.3160208E+08
   17.10000       3.300000     -4.3160208E+08
   16.50000       3.300000     -4.3160208E+08
   16.00000       3.300000     -4.3160208E+08
   15.50000       3.300000     -4.3160208E+08
   15.00000       3.300000     -4.3160208E+08
   14.40000       3.300000     -4.3160208E+08
   14.40000       2.400000     -4.3160208E+08
   14.40000       1.600000     -4.3160208E+08
   14.40000      0.8000000     -4.3160208E+08
   15.00000       2.400000     -4.3160208E+08
   16.50000       2.400000     -4.3160208E+08
   16.50000       1.600000     -4.3160208E+08
   16.50000      0.8000000     -4.3160208E+08
   15.50000       2.400000     -4.3160208E+08
   16.00000       2.400000     -4.3160208E+08
   15.00000      0.8000000     -4.3160208E+08
   15.00000       1.600000     -4.3160208E+08
           5           6           7          22
          22           7           8          21
           8           9          20          21
           9          10          11          20
          20          11          12          24
          24          12          13          23
          13          14          19          23
          14          15          16          19
          19          16          17          26
          26          17          18          25
          18           1           2          25
 TITLE = "Example: 2D Finite-Element Data" 
 VARIABLES = "X", "Y" , "Z"
 ZONE N=          23 E=          10 F=FEPOINT, ET=QUADRILATERAL
   17.10000      0.0000000E+00 -4.3160208E+08
   17.91000      0.0000000E+00 -4.3160208E+08
   18.41000      0.0000000E+00 -4.3160208E+08
   18.91000      0.0000000E+00 -4.3160208E+08
   19.80000      0.0000000E+00 -4.3160208E+08
   19.80000      0.8000000     -4.3160208E+08
   19.80000       1.600000     -4.3160208E+08
   19.80000       2.400000     -4.3160208E+08
   19.80000       3.300000     -4.3160208E+08
   18.91000       3.300000     -4.3160208E+08
   18.45000       3.300000     -4.3160208E+08
   17.91000       3.300000     -4.3160208E+08
   17.10000       3.300000     -4.3160208E+08
   17.10000       2.400000     -4.3160208E+08
   17.10000       1.600000     -4.3160208E+08
   17.10000      0.8000000     -4.3160208E+08
   17.91000       2.400000     -4.3160208E+08
   18.91000       2.400000     -4.3160208E+08
   18.91000       1.600000     -4.3160208E+08
   18.91000      0.8000000     -4.3160208E+08
   18.45000       2.400000     -4.3160208E+08
   17.91000      0.8000000     -4.3160208E+08
   17.91000       1.600000     -4.3160208E+08
           4           5           6          20
          20           6           7          19
           7           8          18          19
           8           9          10          18
          18          10          11          21
          11          12          17          21
          12          13          14          17
          17          14          15          23
          23          15          16          22
          16           1           2          22
 TITLE = "Example: 2D Finite-Element Data" 
 VARIABLES = "X", "Y" , "Z"
 ZONE N=          25 E=          16 F=FEPOINT, ET=QUADRILATERAL
   19.80000      0.0000000E+00 -4.3160208E+08
   20.79000      0.0000000E+00 -4.3160208E+08
   21.78000      0.0000000E+00 -4.3160208E+08
   22.77000      0.0000000E+00 -4.3160208E+08
   23.76000      0.0000000E+00 -4.3160208E+08
   23.76000      0.8000000     -4.3160208E+08
   23.76000       1.600000     -4.3160208E+08
   23.76000       2.400000     -4.3160208E+08
   23.76000       3.300000     -4.3160208E+08
   22.77000       3.300000     -4.3160208E+08
   21.78000       3.300000     -4.3160208E+08
   20.79000       3.300000     -4.3160208E+08
   19.80000       3.300000     -4.3160208E+08
   19.80000       2.400000     -4.3160208E+08
   19.80000       1.600000     -4.3160208E+08
   19.80000      0.8000000     -4.3160208E+08
   20.79000      0.8000000     -4.3160208E+08
   21.78000      0.8000000     -4.3160208E+08
   22.77000      0.8000000     -4.3160208E+08
   20.79000       1.600000     -4.3160208E+08
   21.78000       1.600000     -4.3160208E+08
   22.77000       1.600000     -4.3160208E+08
   20.79000       2.400000     -4.3160208E+08
   21.78000       2.400000     -4.3160208E+08
   22.77000       2.400000     -4.3160208E+08
           1           2          17          16
           2           3          18          17
           3           4          19          18
           4           5           6          19
          16          17          20          15
          17          18          21          20
          18          19          22          21
          19           6           7          22
          15          20          23          14
          20          21          24          23
          21          22          25          24
          22           7           8          25
          13          14          23          12
          12          23          24          11
          11          24          25          10
          25           8           9          10
 TITLE = "Example: 2D Finite-Element Data" 
 VARIABLES = "X", "Y" , "Z"
 ZONE N=          23 E=          10 F=FEPOINT, ET=QUADRILATERAL
  0.0000000E+00  0.0000000E+00 -4.3160208E+08
  0.2300000      0.0000000E+00 -4.3160208E+08
  0.6800000      0.0000000E+00 -4.3160208E+08
   1.130000      0.0000000E+00 -4.3160208E+08
   1.350000      0.0000000E+00 -4.3160208E+08
   1.350000      0.9000000     -4.3160208E+08
   1.350000       1.650000     -4.3160208E+08
   1.350000       2.400000     -4.3160208E+08
   1.350000       3.300000     -4.3160208E+08
   1.130000       3.300000     -4.3160208E+08
  0.6800000       3.300000     -4.3160208E+08
  0.2300000       3.300000     -4.3160208E+08
  0.0000000E+00   3.300000     -4.3160208E+08
  0.0000000E+00   2.400000     -4.3160208E+08
  0.0000000E+00   1.600000     -4.3160208E+08
  0.0000000E+00  0.8000000     -4.3160208E+08
  0.2300000       2.400000     -4.3160208E+08
   1.130000       2.400000     -4.3160208E+08
   1.130000       1.650000     -4.3160208E+08
   1.130000      0.9000000     -4.3160208E+08
  0.6800000       2.400000     -4.3160208E+08
  0.2300000      0.8000000     -4.3160208E+08
  0.2300000       1.600000     -4.3160208E+08
           4           5           6          20
          20           6           7          19
           7           8          18          19
           8           9          10          18
          18          10          11          21
          11          12          17          21
          12          13          14          17
          17          14          15          23
          23          15          16          22
          16           1           2          22
 TITLE = "Example: 2D Finite-Element Data" 
 VARIABLES = "X", "Y" , "Z"
 ZONE N=          23 E=          10 F=FEPOINT, ET=QUADRILATERAL
   5.960000      0.0000000E+00 -4.3160208E+08
   6.240000      0.0000000E+00 -4.3160208E+08
   6.690000      0.0000000E+00 -4.3160208E+08
   7.140000      0.0000000E+00 -4.3160208E+08
   7.460000      0.0000000E+00 -4.3160208E+08
   7.460000      0.8000000     -4.3160208E+08
   7.460000       1.600000     -4.3160208E+08
   7.460000       2.400000     -4.3160208E+08
   7.460000       3.300000     -4.3160208E+08
   7.140000       3.300000     -4.3160208E+08
   6.690000       3.300000     -4.3160208E+08
   6.240000       3.300000     -4.3160208E+08
   5.960000       3.300000     -4.3160208E+08
   5.960000       2.400000     -4.3160208E+08
   5.960000       1.600000     -4.3160208E+08