 TITLE = "Example: 2D Finite-Element Data" 
 VARIABLES = "X", "Y" , "Z"
 ZONE N=          35 E=          24 F=FEPOINT, ET=QUADRILATERAL
  0.0000000E+00  0.0000000E+00 -4.3160208E+08
  0.9933333      0.0000000E+00 -4.3160208E+08
   1.986667      0.0000000E+00 -4.3160208E+08
   2.980000      0.0000000E+00 -4.3160208E+08
   3.973333      0.0000000E+00 -4.3160208E+08
   4.966667      0.0000000E+00 -4.3160208E+08
   5.960000      0.0000000E+00 -4.3160208E+08
   5.960000      0.9000000     -4.3160208E+08
   5.960000       1.800000     -4.3160208E+08
   5.960000       2.700000     -4.3160208E+08
   5.960000       3.300000     -4.3160208E+08
   4.966667       3.300000     -4.3160208E+08
   3.973333       3.300000     -4.3160208E+08
   2.980000       3.300000     -4.3160208E+08
   1.986667       3.300000     -4.3160208E+08
  0.9933333       3.300000     -4.3160208E+08
  0.0000000E+00   3.300000     -4.3160208E+08
  0.0000000E+00   2.700000     -4.3160208E+08
  0.0000000E+00   1.800000     -4.3160208E+08
  0.0000000E+00  0.9000000     -4.3160208E+08
  0.9933333      0.9000000     -4.3160208E+08
   1.986667      0.9000000     -4.3160208E+08
   2.980000      0.9000000     -4.3160208E+08
   3.973333      0.9000000     -4.3160208E+08
   4.966667      0.9000000     -4.3160208E+08
  0.9933333       1.800000     -4.3160208E+08
   1.986667       1.800000     -4.3160208E+08
   2.980000       1.800000     -4.3160208E+08
   3.973333       1.800000     -4.3160208E+08
   4.966667       1.800000     -4.3160208E+08
  0.9933333       2.700000     -4.3160208E+08
   1.986667       2.700000     -4.3160208E+08
   2.980000       2.700000     -4.3160208E+08
   3.973333       2.700000     -4.3160208E+08
   4.966667       2.700000     -4.3160208E+08
           1           2          21          20
           2           3          22          21
           3           4          23          22
           4           5          24          23
           5           6          25          24
           6           7           8          25
          20          21          26          19
          21          22          27          26
          22          23          28          27
          23          24          29          28
          24          25          30          29
          25           8           9          30
          19          26          31          18
          26          27          32          31
          27          28          33          32
          28          29          34          33
          29          30          35          34
          30           9          10          35
          17          18          31          16
          16          31          32          15
          15          32          33          14
          14          33          34          13
          13          34          35          12
          35          10          11          12
 TITLE = "Example: 2D Finite-Element Data" 
 VARIABLES = "X", "Y" , "Z"
 ZONE N=          35 E=          24 F=FEPOINT, ET=QUADRILATERAL
  0.0000000E+00  0.0000000E+00 -4.3160208E+08
  0.9933333      0.0000000E+00 -4.3160208E+08
   1.986667      0.0000000E+00 -4.3160208E+08
   2.980000      0.0000000E+00 -4.3160208E+08
   3.973333      0.0000000E+00 -4.3160208E+08
   4.966667      0.0000000E+00 -4.3160208E+08
   5.960000      0.0000000E+00 -4.3160208E+08
   5.960000      0.8999999     -4.3160208E+08
   5.960000       1.800000     -4.3160208E+08
   5.960000       2.700000     -4.3160208E+08
   5.960000       3.300000     -4.3160208E+08
   4.966667       3.300000     -4.3160208E+08
   3.973333       3.300000     -4.3160208E+08
   2.980000       3.300000     -4.3160208E+08
   1.986667       3.300000     -4.3160208E+08
  0.9933333       3.300000     -4.3160208E+08
  0.0000000E+00   3.300000     -4.3160208E+08
  0.0000000E+00   2.700000     -4.3160208E+08
  0.0000000E+00   1.800000     -4.3160208E+08
  0.0000000E+00  0.8999999     -4.3160208E+08
  0.9933333      0.8999999     -4.3160208E+08
   1.986667      0.8999999     -4.3160208E+08
   2.980000      0.8999999     -4.3160208E+08
   3.973333      0.8999999     -4.3160208E+08
   4.966667      0.8999999     -4.3160208E+08
  0.9933333       1.800000     -4.3160208E+08
   1.986667       1.800000     -4.3160208E+08
   2.980000       1.800000     -4.3160208E+08
   3.973333       1.800000     -4.3160208E+08
   4.966667       1.800000     -4.3160208E+08
  0.9933333       2.700000     -4.3160208E+08
   1.986667       2.700000     -4.3160208E+08
   2.980000       2.700000     -4.3160208E+08
   3.973333       2.700000     -4.3160208E+08
   4.966667       2.700000     -4.3160208E+08
           1           2          21          20
           2           3          22          21
           3           4          23          22
           4           5          24          23
           5           6          25          24
           6           7           8          25
          20          21          26          19
          21          22          27          26
          22          23          28          27
          23          24          29          28
          24          25          30          29
          25           8           9          30
          19          26          31          18
          26          27          32          31
          27          28          33          32
          28          29          34          33
          29          30          35          34
          30           9          10          35
          17          18          31          16
          16          31          32          15
          15          32          33          14
          14          33          34          13
          13          34          35          12
          35          10          11          12
 TITLE = "Example: 2D Finite-Element Data" 
 VARIABLES = "X", "Y" , "Z"
 ZONE N=          35 E=          24 F=FEPOINT, ET=QUADRILATERAL
  0.0000000E+00  0.0000000E+00 -4.3160208E+08
  0.9933333      0.0000000E+00 -4.3160208E+08
   1.986667      0.0000000E+00 -4.3160208E+08
   2.980000      0.0000000E+00 -4.3160208E+08
   3.973333      0.0000000E+00 -4.3160208E+08
   4.966667      0.0000000E+00 -4.3160208E+08
   5.960000      0.0000000E+00 -4.3160208E+08
   5.960000      0.9000000     -4.3160208E+08
   5.960000       1.800000     -4.3160208E+08
   5.960000       2.700000     -4.3160208E+08
   5.960000       3.300000     -4.3160208E+08
   4.966667       3.300000     -4.3160208E+08
   3.973333       3.300000     -4.3160208E+08
   2.980000       3.300000     -4.3160208E+08
   1.986667       3.300000     -4.3160208E+08
  0.9933333       3.300000     -4.3160208E+08
  0.0000000E+00   3.300000     -4.3160208E+08
  0.0000000E+00   2.700000     -4.3160208E+08
  0.0000000E+00   1.800000     -4.3160208E+08
  0.0000000E+00  0.9000000     -4.3160208E+08
  0.9933333      0.9000000     -4.3160208E+08
   1.986667      0.9000000     -4.3160208E+08
   2.980000      0.9000000     -4.3160208E+08
   3.973333      0.9000000     -4.3160208E+08
   4.966667      0.9000000     -4.3160208E+08
  0.9933333       1.800000     -4.3160208E+08
   1.986667       1.800000     -4.3160208E+08
   2.980000       1.800000     -4.3160208E+08
   3.973333       1.800000     -4.3160208E+08
   4.966667       1.800000     -4.3160208E+08
  0.9933333       2.700000     -4.3160208E+08
   1.986667       2.700000     -4.3160208E+08
   2.980000       2.700000     -4.3160208E+08
   3.973333       2.700000     -4.3160208E+08
   4.966667       2.700000     -4.3160208E+08
           1           2          21          20
           2           3          22          21
           3           4          23          22
           4           5          24          23
           5           6          25          24
           6           7           8          25
          20          21          26          19
          21          22          27          26
          22          23          28          27
          23          24          29          28
          24          25          30          29
          25           8           9          30
          19          26          31          18
          26          27          32          31
          27          28          33          32
          28          29          34          33
          29          30          35          34
          30           9          10          35
          17          18          31          16
          16          31          32          15
          15          32          33          14
          14          33          34          13
          13          34          35          12
          35          10          11          12
 TITLE = "Example: 2D Finite-Element Data" 
 VARIABLES = "X", "Y" , "Z"
 ZONE N=          35 E=          24 F=FEPOINT, ET=QUADRILATERAL
  0.0000000E+00  0.0000000E+00 -4.3160208E+08
  0.9933333      0.0000000E+00 -4.3160208E+08
   1.986667      0.0000000E+00 -4.3160208E+08
   2.980000      0.0000000E+00 -4.3160208E+08
   3.973333      0.0000000E+00 -4.3160208E+08
   4.966667      0.0000000E+00 -4.3160208E+08
   5.960000      0.0000000E+00 -4.3160208E+08
   5.960000      0.8999999     -4.3160208E+08
   5.960000       1.800000     -4.3160208E+08
   5.960000       2.700000     -4.3160208E+08
   5.960000       3.300000     -4.3160208E+08
   4.966667       3.300000     -4.3160208E+08
   3.973333       3.300000     -4.3160208E+08
   2.980000       3.300000     -4.3160208E+08
   1.986667       3.300000     -4.3160208E+08
  0.9933333       3.300000     -4.3160208E+08
  0.0000000E+00   3.300000     -4.3160208E+08
  0.0000000E+00   2.700000     -4.3160208E+08
  0.0000000E+00   1.800000     -4.3160208E+08
  0.0000000E+00  0.9000000     -4.3160208E+08
  0.9933333      0.9000000     -4.3160208E+08
   1.986667      0.9000000     -4.3160208E+08
   2.980000      0.9000000     -4.3160208E+08
   3.973333      0.8999999     -4.3160208E+08
   4.966667      0.8999999     -4.3160208E+08
  0.9933333       1.800000     -4.3160208E+08
   1.986667       1.800000     -4.3160208E+08
   2.980000       1.800000     -4.3160208E+08
   3.973333       1.800000     -4.3160208E+08
   4.966667       1.800000     -4.3160208E+08
  0.9933333       2.700000     -4.3160208E+08
   1.986667       2.700000     -4.3160208E+08
   2.980000       2.700000     -4.3160208E+08
   3.973333       2.700000     -4.3160208E+08
   4.966667       2.700000     -4.3160208E+08
           1           2          21          20
           2           3          22          21
           3           4          23          22
           4           5          24          23
           5           6          25          24
           6           7           8          25
          20          21          26          19
          21          22          27          26
          22          23          28          27
          23          24          29          28
          24          25          30          29
          25           8           9          30
          19          26          31          18
          26          27          32          31
          27          28          33          32
          28          29          34          33
          29          30          35          34
          30           9          10          35
          17          18          31          16
          16          31          32          15
          15          32          33          14
          14          33          34          13
          13          34          35          12
          35          10          11          12
 TITLE = "Example: 2D Finite-Element Data" 
 VARIABLES = "X", "Y" , "Z"
 ZONE N=          28 E=          18 F=FEPOINT, ET=QUADRILATERAL
  0.0000000E+00  0.0000000E+00 -4.3160208E+08
  0.9933333      0.0000000E+00 -4.3160208E+08
   1.986667      0.0000000E+00 -4.3160208E+08
   2.980000      0.0000000E+00 -4.3160208E+08
   3.973333      0.0000000E+00 -4.3160208E+08
   4.966667      0.0000000E+00 -4.3160208E+08
   5.960000      0.0000000E+00 -4.3160208E+08
   5.960000       1.100000     -4.3160208E+08
   5.960000       2.200000     -4.3160208E+08
   5.960000       3.300000     -4.3160208E+08
   4.966667       3.300000     -4.3160208E+08
   3.973333       3.300000     -4.3160208E+08
   2.980000       3.300000     -4.3160208E+08
   1.986667       3.300000     -4.3160208E+08
  0.9933333       3.300000     -4.3160208E+08
  0.0000000E+00   3.300000     -4.3160208E+08
  0.0000000E+00   2.200000     -4.3160208E+08
  0.0000000E+00   1.100000     -4.3160208E+08
  0.9933333       1.100000     -4.3160208E+08
   1.986667       1.100000     -4.3160208E+08
   2.980000       1.100000     -4.3160208E+08
   3.973333       1.100000     -4.3160208E+08
   4.966667       1.100000     -4.3160208E+08
  0.9933333       2.200000     -4.3160208E+08
   1.986667       2.200000     -4.3160208E+08
   2.980000       2.200000     -4.3160208E+08
   3.973333       2.200000     -4.3160208E+08
   4.966667       2.200000     -4.3160208E+08
           1           2          19          18
           2           3          20          19
           3           4          21          20
           4           5          22          21
           5           6          23          22
           6           7           8          23
          18          19          24          17
          19          20          25          24
          20          21          26          25
          21          22          27          26
          22          23          28          27
          23           8           9          28
          16          17          24          15
          15          24          25          14
          14          25          26          13
          13          26          27          12
          12          27          28          11
          28           9          10          11
 TITLE = "Example: 2D Finite-Element Data" 
 VARIABLES = "X", "Y" , "Z"
 ZONE N=          30 E=          15 F=FEPOINT, ET=QUADRILATERAL
  0.0000000E+00  0.0000000E+00 -4.3160208E+08
   1.275000      0.0000000E+00 -4.3160208E+08
   1.650000      0.0000000E+00 -4.3160208E+08
   2.025000      0.0000000E+00 -4.3160208E+08
   2.400000      0.0000000E+00 -4.3160208E+08
   2.775000      0.0000000E+00 -4.3160208E+08
   4.050000      0.0000000E+00 -4.3160208E+08
   4.050000      0.9000000     -4.3160208E+08
   4.050000       1.800000     -4.3160208E+08
   4.050000       2.700000     -4.3160208E+08
   4.050000       3.300000     -4.3160208E+08
   2.775000       3.300000     -4.3160208E+08
   2.275000       3.300000     -4.3160208E+08
   1.775000       3.300000     -4.3160208E+08
   1.275000       3.300000     -4.3160208E+08
  0.0000000E+00   3.300000     -4.3160208E+08
  0.0000000E+00   2.700000     -4.3160208E+08
  0.0000000E+00   1.800000     -4.3160208E+08
  0.0000000E+00  0.9000000     -4.3160208E+08
   1.275000       2.700000     -4.3160208E+08
   2.775000       2.700000     -4.3160208E+08
   2.775000      0.9000000     -4.3160208E+08
   1.275000      0.9000000     -4.3160208E+08
   2.400000      0.9000000     -4.3160208E+08
   2.025000      0.9000000     -4.3160208E+08
   1.650000      0.9000000     -4.3160208E+08
   2.775000       1.800000     -4.3160208E+08
   1.775000       2.700000     -4.3160208E+08
   2.275000       2.700000     -4.3160208E+08
   1.275000       1.800000     -4.3160208E+08
          19           1           2          23
          23           2           3          26
          26           3           4          25
          25           4           5          24
           5           6          22          24
           6           7           8          22
          22           8           9          27
           9          10          21          27
          10          11          12          21
          21          12          13          29
          29          13          14          28
          14          15          20          28
          15          16          17          20
          20          17          18          30
          18          19          23          30
 TITLE = "Example: 2D Finite-Element Data" 
 VARIABLES = "X", "Y" , "Z"
 ZONE N=          30 E=          15 F=FEPOINT, ET=QUADRILATERAL
   8.100000      0.0000000E+00 -4.3160208E+08
   9.150001      0.0000000E+00 -4.3160208E+08
   9.525001      0.0000000E+00 -4.3160208E+08
   9.900001      0.0000000E+00 -4.3160208E+08
   10.27500      0.0000000E+00 -4.3160208E+08
   10.65000      0.0000000E+00 -4.3160208E+08
   11.70000      0.0000000E+00 -4.3160208E+08
   11.70000      0.9000000     -4.3160208E+08
   11.70000       1.800000     -4.3160208E+08
   11.70000       2.700000     -4.3160208E+08
   11.70000       3.300000     -4.3160208E+08
   10.65000       3.300000     -4.3160208E+08
   10.15000       3.300000     -4.3160208E+08
   9.650001       3.300000     -4.3160208E+08
   9.150001       3.300000     -4.3160208E+08
   8.100000       3.300000     -4.3160208E+08
   8.100000       2.700000     -4.3160208E+08
   8.100000       1.800000     -4.3160208E+08
   8.100000      0.8999999     -4.3160208E+08
   9.150001       2.700000     -4.3160208E+08
   10.65000       2.700000     -4.3160208E+08
   10.65000      0.9000000     -4.3160208E+08
   9.150001      0.9000000     -4.3160208E+08
   10.27500      0.9000000     -4.3160208E+08
   9.900001      0.9000000     -4.3160208E+08
   9.525001      0.9000000     -4.3160208E+08
   10.65000       1.800000     -4.3160208E+08
   9.650001       2.700000     -4.3160208E+08
   10.15000       2.700000     -4.3160208E+08
   9.150001       1.800000     -4.3160208E+08
          19           1           2          23
          23           2           3          26
          26           3           4          25
          25           4           5          24
           5           6          22          24
           6           7           8          22
          22           8           9          27
           9          10          21          27
          10          11          12          21
          21          12          13          29
          29          13          14          28
          14          15          20          28
          15          16          17          20
          20          17          18          30
          18          19          23          30
 TITLE = "Example: 2D Finite-Element Data" 
 VARIABLES = "X", "Y" , "Z"
 ZONE N=          30 E=          15 F=FEPOINT, ET=QUADRILATERAL
   11.70000      0.0000000E+00 -4.3160208E+08
   12.97500      0.0000000E+00 -4.3160208E+08
   13.35000      0.0000000E+00 -4.3160208E+08
   13.72500      0.0000000E+00 -4.3160208E+08
   14.10000      0.0000000E+00 -4.3160208E+08
   14.47500      0.0000000E+00 -4.3160208E+08
   15.75000      0.0000000E+00 -4.3160208E+08
   15.75000      0.8999999     -4.3160208E+08
   15.75000       1.800000     -4.3160208E+08
   15.75000       2.700000     -4.3160208E+08
   15.75000       3.300000     -4.3160208E+08
   14.47500       3.300000     -4.3160208E+08
   13.97500       3.300000     -4.3160208E+08
   13.47500       3.300000     -4.3160208E+08
   12.97500       3.300000     -4.3160208E+08
   11.70000       3.300000     -4.3160208E+08
   11.70000       2.700000     -4.3160208E+08
   11.70000       1.800000     -4.3160208E+08
   11.70000      0.9000000     -4.3160208E+08
   12.97500       2.700000     -4.3160208E+08
   14.47500       2.700000     -4.3160208E+08
   14.47500      0.9000000     -4.3160208E+08
   12.97500      0.9000000     -4.3160208E+08
   14.10000      0.9000000     -4.3160208E+08
   13.72500      0.9000000     -4.3160208E+08
   13.35000      0.9000000     -4.3160208E+08
   14.47500       1.800000     -4.3160208E+08
   13.47500       2.700000     -4.3160208E+08
   13.97500       2.700000     -4.3160208E+08
   12.97500       1.800000     -4.3160208E+08
          19           1           2          23
          23           2           3          26
          26           3           4          25
          25           4           5          24
           5           6          22          24
           6           7           8          22
          22           8           9          27
           9          10          21          27
          10          11          12          21
          21          12          13          29
          29          13          14          28
          14          15          20          28
          15          16          17          20
          20          17          18          30
          18          19          23          30
 TITLE = "Example: 2D Finite-Element Data" 
 VARIABLES = "X", "Y" , "Z"
 ZONE N=          25 E=          16 F=FEPOINT, ET=QUADRILATERAL
   19.80000      0.0000000E+00 -4.3160208E+08
   20.79000      0.0000000E+00 -4.3160208E+08
   21.78000      0.0000000E+00 -4.3160208E+08
   22.27500      0.0000000E+00 -4.3160208E+08
   22.77000      0.0000000E+00 -4.3160208E+08
   23.76000      0.0000000E+00 -4.3160208E+08
   23.76000       1.100000     -4.3160208E+08
   23.76000       2.200000     -4.3160208E+08
   23.76000       3.300000     -4.3160208E+08
   22.77000       3.300000     -4.3160208E+08
   21.78000       3.300000     -4.3160208E+08
   20.79000       3.300000     -4.3160208E+08
   19.80000       3.300000     -4.3160208E+08
   19.80000       2.700000     -4.3160208E+08
   19.80000       1.800000     -4.3160208E+08
   19.80000      0.9000000     -4.3160208E+08
   20.71863      0.7970838     -4.3160208E+08
   21.56899      0.7200097     -4.3160208E+08
   22.19783      0.5798675     -4.3160208E+08
   22.70361       1.060418     -4.3160208E+08
   22.72842       2.214354     -4.3160208E+08
   21.72466       2.399771     -4.3160208E+08
   20.73263       2.511623     -4.3160208E+08
   20.75430       1.645075     -4.3160208E+08
   21.71831       1.474502     -4.3160208E+08
           1           2          17          16
           2           3          18          17
           3           4          19          18
           4           5          20          19
           5           6           7          20
           7           8          21          20
           8           9          10          21
          10          11          22          21
          11          12          23          22
          12          13          14          23
          14          15          24          23
          15          16          17          24
          23          24          25          22
          24          17          18          25
          21          22          25          20
          20          25          18          19
 TITLE = "Example: 2D Finite-Element Data" 
 VARIABLES = "X", "Y" , "Z"
 ZONE N=          12 E=           6 F=FEPOINT, ET=QUADRILATERAL
   5.960000      0.0000000E+00 -4.3160208E+08
   6.710000      0.0000000E+00 -4.3160208E+08
   7.460000      0.0000000E+00 -4.3160208E+08
   7.460000       1.100000     -4.3160208E+08
   7.460000       2.200000     -4.3160208E+08
   7.460000       3.300000     -4.3160208E+08
   6.710000       3.300000     -4.3160208E+08
   5.960000       3.300000     -4.3160208E+08
   5.960000       2.200000     -4.3160208E+08
   5.960000       1.100000     -4.3160208E+08
   6.710000       1.100000     -4.3160208E+08
   6.710000       2.200000     -4.3160208E+08
           1           2          11          10
           2           3           4          11
          10          11          12           9
          11           4           5          12
           8           9          12           7
          12           5           6           7
 TITLE = "Example: 2D Finite-Element Data" 
 VARIABLES = "X", "Y" , "Z"
 ZONE N=          30 E=          15 F=FEPOINT, ET=QUADRILATERAL
  0.0000000E+00  0.0000000E+00 -4.3160208E+08
   1.275000      0.0000000E+00 -4.3160208E+08
   1.650000      0.0000000E+00 -4.3160208E+08
   2.025000      0.0000000E+00 -4.3160208E+08
   2.400000      0.0000000E+00 -4.3160208E+08
   2.775000      0.0000000E+00 -4.3160208E+08
   4.050000      0.0000000E+00 -4.3160208E+08
   4.050000      0.8999999     -4.3160208E+08
   4.050000       1.800000     -4.3160208E+08
   4.050000       2.700000     -4.3160208E+08
   4.050000       3.300000     -4.3160208E+08
   2.775000       3.300000     -4.3160208E+08
   2.275000       3.300000     -4.3160208E+08
   1.775000       3.300000     -4.3160208E+08
   1.275000       3.300000     -4.3160208E+08
  0.0000000E+00   3.300000     -4.3160208E+08
  0.0000000E+00   2.700000     -4.3160208E+08
  0.0000000E+00   1.800000     -4.3160208E+08
  0.0000000E+00  0.9000000     -4.3160208E+08
   1.275000       2.700000     -4.3160208E+08
   2.775000       2.700000     -4.3160208E+08
   2.775000      0.9000000     -4.3160208E+08
   1.275000      0.9000000     -4.3160208E+08
   2.400000      0.9000000     -4.3160208E+08
   2.025000      0.9000000     -4.3160208E+08
   1.650000      0.9000000     -4.3160208E+08
   2.775000       1.800000     -4.3160208E+08
   1.775000       2.700000     -4.3160208E+08
   2.275000       2.700000     -4.3160208E+08
   1.275000       1.800000     -4.3160208E+08
          19           1           2          23
          23           2           3          26
          26           3           4          25
          25           4           5          24
           5           6          22          24
           6           7           8          22
          22           8           9          27
           9          10          21          27
          10          11          12          21
          21          12          13          29
          29          13          14          28
          14          15          20          28
          15          16          17          20
          20          17          18          30
          18          19          23          30
 TITLE = "Example: 2D Finite-Element Data" 
 VARIABLES = "X", "Y" , "Z"
 ZONE N=          16 E=           9 F=FEPOINT, ET=QUADRILATERAL
   5.960000      0.0000000E+00 -4.3160208E+08
   6.335000      0.0000000E+00 -4.3160208E+08
   6.710000      0.0000000E+00 -4.3160208E+08
   7.460000      0.0000000E+00 -4.3160208E+08
   7.460000       1.100000     -4.3160208E+08
   7.460000       2.200000     -4.3160208E+08
   7.460000       3.300000     -4.3160208E+08
   6.710000       3.300000     -4.3160208E+08
   5.960000       3.300000     -4.3160208E+08
   5.960000       2.700000     -4.3160208E+08
   5.960000       1.800000     -4.3160208E+08
   5.960000      0.8999999     -4.3160208E+08
   6.464437      0.7719994     -4.3160208E+08
   6.900526      0.6486873     -4.3160208E+08
   6.677368       1.527765     -4.3160208E+08
   6.702324       2.420408     -4.3160208E+08
           1           2          13          12
           2           3          14          13
           3           4           5          14
           5           6          16          15
           6           7           8          16
           8           9          10          16
          16          10          11          15
          14           5          15          13
          13          15          11          12
 TITLE = "Example: 2D Finite-Element Data" 
 VARIABLES = "X", "Y" , "Z"
 ZONE N=          30 E=          15 F=FEPOINT, ET=QUADRILATERAL
   8.100000      0.0000000E+00 -4.3160208E+08
   9.150001      0.0000000E+00 -4.3160208E+08
   9.525001      0.0000000E+00 -4.3160208E+08
   9.900001      0.0000000E+00 -4.3160208E+08
   10.27500      0.0000000E+00 -4.3160208E+08
   10.65000      0.0000000E+00 -4.3160208E+08
   11.70000      0.0000000E+00 -4.3160208E+08
   11.70000      0.9000000     -4.3160208E+08
   11.70000       1.800000     -4.3160208E+08
   11.70000       2.700000     -4.3160208E+08
   11.70000       3.300000     -4.3160208E+08
   10.65000       3.300000     -4.3160208E+08
   10.15000       3.300000     -4.3160208E+08
   9.650001       3.300000     -4.3160208E+08
   9.150001       3.300000     -4.3160208E+08
   8.100000       3.300000     -4.3160208E+08
   8.100000       2.700000     -4.3160208E+08
   8.100000       1.800000     -4.3160208E+08
   8.100000      0.8999999     -4.3160208E+08
   9.150001       2.700000     -4.3160208E+08
   10.65000       2.700000     -4.3160208E+08
   10.65000      0.9000000     -4.3160208E+08
   9.150001      0.9000000     -4.3160208E+08
   10.27500      0.9000000     -4.3160208E+08
   9.900001      0.9000000     -4.3160208E+08
   9.525001      0.9000000     -4.3160208E+08
   10.65000       1.800000     -4.3160208E+08
   9.650001       2.700000     -4.3160208E+08
   10.15000       2.700000     -4.3160208E+08
   9.150001       1.800000     -4.3160208E+08
          19           1           2          23
          23           2           3          26
          26           3           4          25
          25           4           5          24
           5           6          22          24
           6           7           8          22
          22           8           9          27
           9          10          21          27
          10          11          12          21
          21          12          13          29